45
	Energy:     -90.7971486
O         -4.92598       -0.92991       -1.96292
S         -5.00251       -0.88237       -0.52780
O         -5.71002        0.16559        0.17828
O         -5.75268       -2.22858       -0.09849
N         -3.52286       -0.96719        0.10021
C         -2.33530       -1.45896       -0.43874
O         -2.05455       -1.95388       -1.48278
C         -1.57366       -1.04986        0.84190
H         -1.18327       -1.91773        1.37709
N         -0.58097       -0.01183        0.62536
C          0.73418       -0.36097        0.53841
O          1.09277       -1.50341        0.76867
C          1.73694        0.69898        0.19623
N          2.99298        0.43435        0.00834
O          3.36859       -0.93094        0.05288
C          4.79179       -1.00032       -0.16473
C          5.24003       -2.45783       -0.14156
O          4.46993       -3.39012        0.03588
O          6.57203       -2.67178       -0.33205
C          5.10993       -0.38511       -1.51657
C          5.48789       -0.22906        0.94307
C          1.32279        2.09362        0.05755
N         -0.05344        2.43014        0.12760
C         -0.30499        3.70532       -0.01775
S          1.18820        4.58337       -0.25050
C          2.18602        3.15241       -0.14657
N         -1.57143        4.21700        0.02416
C         -2.91916       -0.53525        1.35690
H         -2.93758        0.54993        1.49157
C         -3.43530       -1.30393        2.54371
H         -6.65301       -2.15076       -0.48143
H         -0.84902        0.96076        0.49155
H          6.81950       -3.62710       -0.31024
H          4.76751        0.65668       -1.54876
H          6.18587       -0.40069       -1.69460
H          4.60191       -0.93377       -2.31534
H          5.25286       -0.66568        1.91848
H          6.56791       -0.24323        0.79196
H          5.15113        0.81517        0.94719
H          3.28736        3.07218       -0.22335
H         -2.40799        3.63846        0.16119
H         -1.78258        5.20549       -0.08769
H         -2.72197       -1.23608        3.37297
H         -4.39150       -0.89070        2.87230
H         -3.57436       -2.36137        2.29340
