16
	Energy:      78.1888581
C         -4.32545        3.21193        0.49033
C         -3.69364        4.02273        1.37614
C         -3.55788        3.05182       -0.83823
H         -5.26905        2.71889        0.67440
C         -2.15416        2.54490       -0.44779
C         -1.52235        3.35569        0.43802
H         -1.73697        1.63369       -0.85155
C         -2.36214        4.58632        0.83823
H         -4.06565        4.26322        2.36160
H         -0.53357        3.17801        0.83564
C         -3.34820        4.48423       -1.37125
H         -4.06613        2.39955       -1.55083
C         -2.71639        5.29503       -0.48544
H         -3.67946        4.78840       -2.35365
H         -1.85386        5.23857        1.55083
H         -2.47605        6.33273       -0.66645
