158
	Energy:     725.4217443
N         -1.53616       -1.36851       -0.46968
C         -1.15581       -2.47760       -1.31790
H         -0.31156       -2.99769       -0.86655
H         -0.87365       -2.07429       -2.29716
H         -1.98140       -3.17278       -1.48021
C         -0.37981       -0.12467       -0.52990
C         -0.72758        1.22282        0.21480
C         -0.27941        2.55991       -0.50597
H         -0.33013        1.20582        1.23521
H         -1.81263        1.30484        0.30694
C         -0.96911        3.81696        0.05967
H         -0.63134        4.71557       -0.47923
H         -0.72465        3.97255        1.11639
H         -2.05426        3.76907       -0.05149
C          1.21088        2.83431       -0.40674
H         -0.54296        2.50275       -1.56899
H          1.47832        3.84403       -0.74529
H          1.77435        2.14464       -1.03403
H          1.52453        2.75717        0.63715
C          1.32096       -0.54658       -0.59511
H         -0.52590        0.16278       -1.58472
O          1.65926       -1.35680       -1.47114
N          2.35688        0.02670        0.19743
C          3.94320       -0.24067        0.01545
C          4.87866        1.01531        0.36664
C          4.48073       -1.55315        0.84991
H          4.05829       -0.48172       -1.04732
O          3.83075       -1.94542        1.82830
N          5.62577       -2.30287        0.42892
C          6.95784       -1.71498        0.40022
H          7.29238       -1.61132       -0.63573
H          7.66821       -2.34022        0.94773
H          6.96692       -0.74878        0.90517
C          5.52969       -3.84141        0.36711
C          4.61838       -4.12846       -0.87468
C          6.76109       -4.89377        0.30475
O          7.87235       -4.56788       -0.11666
N          6.41623       -6.25287        0.59456
C          7.18518       -7.46532        0.11342
C          8.68197       -7.31127        0.54281
H          9.28281       -6.93949       -0.30289
H          9.16069       -8.23386        0.87992
H          8.81945       -6.56603        1.33900
H          5.51780       -6.42965        1.01697
H          5.02266       -4.11189        1.30193
H          2.09667        0.44849        1.07918
C          6.59901       -9.06521        0.28449
H          7.20552       -7.34525       -0.97952
O          7.42417       -9.96593        0.48078
C          4.25531        2.40942        0.41672
H          3.86113        2.70319       -0.56009
H          5.01390        3.16467        0.67355
H          3.49228        2.47903        1.18964
C          6.10927        1.16917       -0.56707
H          5.27138        0.84148        1.37833
H          6.06364        2.07247       -1.18976
H          6.24179        0.32600       -1.24504
H          7.02258        1.28333        0.03361
C          3.15482       -4.10575       -0.44466
H          3.00163       -4.68151        0.47323
H          2.50135       -4.50277       -1.22304
H          2.83227       -3.08603       -0.24815
C          4.87891       -5.40756       -1.67597
H          4.77892       -3.31422       -1.59671
H          4.25765       -5.42352       -2.57541
H          4.62476       -6.30264       -1.10170
H          5.91760       -5.47026       -2.01906
N          5.23850       -9.40959        0.00914
C          4.50671      -10.82635        0.19715
C          5.47499      -12.01782       -0.07019
H          5.95215      -11.93198       -1.05172
H          4.93719      -12.97779       -0.05821
H          6.25506      -12.11257        0.69257
C          3.05172      -11.34071       -0.58531
H          4.29021      -10.86998        1.27321
O          3.14713      -11.98785       -1.65151
N          1.75318      -11.13366       -0.01130
C          1.67094      -10.01487        0.88371
H          2.18821      -10.25168        1.81567
H          0.63800       -9.76441        1.09277
H          2.17184       -9.16303        0.41080
C          0.32273      -11.82181       -0.52954
C          0.14476      -13.27719        0.08086
C         -0.87467      -14.15498       -0.67149
H         -1.01476      -15.11899       -0.16097
H         -0.55575      -14.37642       -1.69617
H         -1.85309      -13.70208       -0.73261
C          1.44154      -14.14135        0.08641
H         -0.17686      -13.17367        1.12180
H          1.24167      -15.16018        0.45417
H          2.21586      -13.72900        0.73697
H          1.85707      -14.26266       -0.92241
C         -1.02484      -10.67300       -0.78323
H          0.59537      -12.05728       -1.57519
O         -0.63387       -9.75060       -1.52587
N         -2.40756      -10.57735       -0.22587
C         -3.13226      -11.77749        0.14584
H         -3.36805      -12.34910       -0.75748
H         -4.08582      -11.50656        0.61001
H         -2.56481      -12.38248        0.85611
C         -3.38440       -9.13818       -0.04142
C         -2.46371       -7.96218       -0.42911
C         -3.11402       -6.65585       -0.82834
H         -3.82465       -6.81873       -1.64371
H         -2.36296       -5.95696       -1.20476
H         -3.60551       -6.18674        0.02291
C         -1.45120       -7.71988        0.68515
H         -1.97039       -8.23835       -1.35491
H         -1.87044       -7.06946        1.45819
H         -0.54793       -7.25685        0.28173
H         -1.16343       -8.64894        1.18367
C         -5.09478       -8.59776       -0.39704
H         -3.45253       -9.19136        1.05334
O         -5.69986       -9.07433       -1.35500
N         -5.70299       -7.47989        0.40534
C         -5.55384       -7.58729        1.84111
H         -5.05018       -8.50135        2.14976
H         -6.55564       -7.59948        2.28915
H         -5.01908       -6.70669        2.20414
C         -6.78411       -6.21461       -0.00877
C         -5.87987       -4.93477       -0.80991
O         -5.51128       -5.04211       -1.97894
N         -5.36544       -3.86901        0.00445
C         -4.05081       -2.77286        0.00951
C         -3.63153       -2.98919        1.50286
C         -2.33098       -3.75492        1.61188
H         -4.39842       -3.54491        2.05753
H         -3.54672       -2.02886        2.02580
H         -2.20524       -4.45347        0.78288
H         -2.30599       -4.31991        2.54703
H         -1.48195       -3.06739        1.61866
C         -3.00280       -1.29148       -0.31458
H         -4.87302       -2.02484        0.01342
O         -3.53104       -0.17740       -0.18083
H         -6.01880       -3.62367        0.73766
C         -8.43517       -6.73183       -0.29745
H         -6.93313       -5.74016        0.97520
O         -8.58806       -7.22735       -1.62264
H         -9.15046       -8.02336       -1.57259
C         -9.89782       -5.94931        0.10093
H         -8.49978       -7.61211        0.36167
C         -9.99558       -4.51684       -0.42192
H         -9.18592       -3.89934       -0.03259
H        -10.92756       -4.03853       -0.08864
H         -9.99609       -4.48759       -1.51468
C        -11.28649       -6.72954       -0.36087
H         -9.94481       -5.90117        1.19795
C        -12.72172       -6.11617       -0.18188
H        -11.29830       -7.70964        0.13223
H        -11.20971       -6.90779       -1.44077
C        -13.88950       -6.80908       -0.12915
H        -12.81891       -5.03303       -0.21826
C        -15.29911       -6.23693       -0.10653
H        -13.87862       -7.89756       -0.15216
H        -15.32683       -5.14266       -0.11896
H        -15.84915       -6.57483        0.78159
H        -15.87333       -6.58682       -0.97643
H          4.62422       -8.64986       -0.23350
