45
	Energy:     102.0747182
C         -2.35592        1.04053        0.34419
O         -1.13825        1.72165        0.60716
H         -2.25506        0.31684       -0.47101
H         -3.09010        1.79173        0.03490
H         -2.74060        0.56850        1.25148
C         -0.01151        0.95296        0.56081
C          0.17702       -0.27603        1.17681
C          1.07887        1.54699       -0.09282
C          2.30677        0.87868       -0.21514
H          0.95807        2.52800       -0.54644
C          2.49557       -0.34559        0.42099
H          3.10738        1.33054       -0.79435
C          1.45120       -0.83673        1.19130
C         -0.78073       -1.20154        1.85504
C          1.59600       -1.96778        2.18898
C          0.10526       -2.34337        2.44196
H         -1.49066       -1.58740        1.11567
H         -1.32491       -0.68883        2.65295
C          2.48593       -3.06034        1.56735
C          1.75729       -3.81022        0.47406
C          0.47326       -4.14266        0.66331
C         -0.22775       -3.76631        1.94022
H         -0.11337       -2.36146        3.51877
C          3.71460       -1.20092        0.21379
C          3.84697       -2.39248        1.20818
H          4.61835       -0.57838        0.23642
H          3.64711       -1.61412       -0.80177
H          2.69691       -3.83663        2.31920
C          2.28565       -1.38363        3.45375
C          3.73325       -1.86644        3.63817
H          1.73832       -1.67881        4.35730
H          2.27521       -0.28518        3.44651
N          4.54562       -1.87517        2.41654
H          4.47656       -3.14501        0.71272
H          3.70281       -2.87010        4.08351
H          4.21490       -1.21911        4.38178
C          5.80439       -2.58483        2.64741
H          5.63905       -3.65037        2.84639
H          6.34353       -2.15448        3.49820
H          6.46456       -2.49465        1.77765
O         -1.62765       -3.94721        1.80079
H          0.09801       -4.47801        2.71217
H         -1.77947       -4.90219        1.69576
H          2.29474       -4.12610       -0.41678
H         -0.05740       -4.73585       -0.07713
