59
	Energy:      33.4508616
C          6.53129        2.55433        1.62801
C          7.27155        1.60001        0.73123
C          8.67619        1.56380        0.81277
C          9.42192        0.69239        0.02029
C          8.77840       -0.12445       -0.90288
C          7.38535       -0.09525       -1.01301
C          6.61321        0.73221       -0.16624
N          5.19028        0.69592       -0.16932
C          4.51715       -0.50516        0.03450
O          5.10454       -1.57874        0.18463
C          3.07985       -0.42920        0.19435
C          2.28778       -1.46563        0.63213
N          0.95723       -1.17939        0.76661
C          0.67586        0.03430        0.34854
S          2.09156        0.93229       -0.13023
N         -0.56616        0.59396        0.29242
C         -1.75885       -0.15787        0.43083
C         -2.98682        0.48595        0.47638
C         -4.12393       -0.28678        0.69064
N         -4.02333       -1.60815        0.90683
C         -2.80787       -2.15766        0.86667
N         -1.68982       -1.48322        0.60452
C         -2.68830       -3.62860        1.09885
N         -5.41229        0.31226        0.72035
C         -6.43555       -0.66728        1.17992
C         -7.84953       -0.05583        1.16992
N         -8.22116        0.45424       -0.16744
C         -7.22331        1.45854       -0.58171
C         -5.77533        0.89671       -0.59199
C         -9.60634        0.95754       -0.15813
C        -10.16473        1.38395       -1.52828
O        -10.17173        0.29528       -2.44563
Cl         6.69444       -0.98971       -2.32967
H          6.16421        3.40411        1.04436
H          5.69066        2.05840        2.12316
H          7.17995        2.94121        2.42169
H          9.20300        2.20758        1.51557
H         10.50519        0.66321        0.10967
H          9.36607       -0.77392       -1.54697
H          4.69457        1.51221        0.16238
H          2.64648       -2.45553        0.89121
H         -0.67300        1.42139       -0.27444
H         -3.06333        1.55950        0.37690
H         -2.78824       -4.16147        0.14936
H         -1.71493       -3.86923        1.53814
H         -3.46704       -3.97417        1.78520
H         -6.44918       -1.55495        0.53132
H         -6.21028       -0.98819        2.20521
H         -8.55501       -0.83823        1.47601
H         -7.90561        0.74800        1.91581
H         -7.43842        1.80958       -1.59633
H         -7.26649        2.32983        0.08512
H         -5.09938        1.72215       -0.84463
H         -5.69260        0.13757       -1.38192
H        -10.25336        0.14807        0.20531
H         -9.70507        1.79539        0.54290
H        -11.19993        1.71987       -1.40571
H         -9.59202        2.21034       -1.95854
H        -10.44978        0.64552       -3.30764
