35
	Energy:     109.2796601
C         -3.02366        2.35986       -0.00703
C         -3.30418        0.95744       -0.00346
C         -1.65886        2.83549       -0.02118
C         -0.49627        1.96776       -0.03152
C         -0.81869        0.56881       -0.02224
C         -2.20034        0.08404       -0.00991
H         -1.49610        3.91781       -0.02137
H         -0.00838       -0.14800       -0.02228
O         -4.18735        3.07540        0.00578
C         -4.37669        4.47369       -0.00157
H         -3.97161        4.95939        0.88716
H         -5.46862        4.62371        0.03471
H         -4.03701        4.93753       -0.92897
O         -4.68405        0.64306        0.01309
C         -5.20641       -0.70254       -0.01829
C         -6.75749       -0.82320        0.00204
H         -4.85734       -1.24782        0.86246
H         -4.88099       -1.19422       -0.93903
H         -7.21130       -0.41779        0.91433
H         -7.04885       -1.88526       -0.04348
H         -7.24481       -0.33007       -0.84723
O         -2.58157       -1.23730       -0.00219
C         -1.69499       -2.32650       -0.00174
H         -2.32455       -3.22771       -0.00100
H         -1.08896       -2.35874        0.90638
H         -1.08918       -2.35975       -0.90984
C          0.99062        2.62085       -0.05175
C          2.45962        1.92704       -0.03814
H          1.01293        3.29938        0.81493
H          1.01089        3.26754       -0.94211
N          3.64792        2.84438        0.06809
H          2.63110        1.33179       -0.94082
H          2.55224        1.26487        0.82729
H          3.91220        3.24038       -0.83883
H          4.48727        2.31015        0.33265
