33
	Energy:      95.4437008
C         -3.91795        4.51185       -0.00202
O         -4.31415        3.15855        0.02188
H         -4.75583        5.09623        0.42203
H         -3.82014        4.87454       -1.03038
H         -3.04007        4.72417        0.60303
C         -3.61142        1.98486        0.00380
C         -4.56360        0.97113        0.00131
C         -2.20022        1.62746        0.00328
C         -1.72112        0.20486        0.01026
C         -2.80663       -0.70370        0.01120
C         -4.18264       -0.35915        0.00433
H         -4.97100       -1.11254        0.00299
H         -5.63033        1.22508        0.00009
H         -1.47244        2.42960        0.00408
C         -0.36973       -0.72226        0.01293
C         -0.91593       -2.00636        0.01399
N         -2.29413       -1.97639        0.01474
H         -0.45890       -2.98493        0.00320
H         -2.89820       -2.78885        0.00827
C          1.34384       -0.42843       -0.03314
C          2.65441       -1.59108        0.09085
H          1.51638        0.29062        0.77146
H          1.49241        0.04593       -1.00842
N          4.20824       -1.11581        0.07449
H          2.59316       -2.31307       -0.73463
H          2.56677       -2.15718        1.02672
C          5.35142       -1.95713       -0.03545
H          4.42343       -0.24632        0.54805
O          5.25199       -3.19596       -0.18763
C          6.80173       -1.36178        0.02906
H          6.85100       -0.27075        0.03744
H          7.40286       -1.70049       -0.83479
H          7.35728       -1.73055        0.90818
