14
	Energy:      33.7643528
C         -5.67082        4.30326       -0.03000
N         -4.41198        3.54896       -0.21079
H         -6.08361        4.29236        0.99232
H         -6.45675        3.82319       -0.63547
H         -5.65885        5.35024       -0.37145
C         -3.08649        4.20325       -0.05975
C         -1.66129        3.44175       -0.06398
H         -3.07600        4.84300        0.83040
H         -3.01199        4.86984       -0.92593
O         -0.59688        4.41985       -0.02152
H         -1.48976        2.84197       -0.96531
H         -1.50559        2.79387        0.80998
H          0.22140        4.03037       -0.43560
H         -4.49678        2.59879        0.16315
