113
	Energy:     549.1633970
C         -3.18819        0.62388       -0.02958
C         -2.54818       -0.57760        0.29871
C         -1.14267       -0.67871        0.26678
C         -0.38737        0.43709       -0.09242
C         -1.03245        1.64526       -0.40015
C         -2.42695        1.73955       -0.36815
H         -4.27360        0.69947        0.01115
H         -3.15178       -1.42787        0.61228
H         -0.44572        2.53078       -0.63452
H         -2.91767        2.68723       -0.58469
H          0.69690        0.39675       -0.07092
C         -0.50061       -1.91397        0.80235
O         -0.89455       -2.31684        1.89490
N          0.43441       -2.61229        0.01629
C          0.67608       -4.04331        0.34594
H          0.55069       -2.32790       -0.94868
C         -0.59290       -4.89738       -0.02840
C         -0.69434       -6.23612        0.38640
C         -1.87375       -6.97727        0.19760
C         -2.99371       -6.39640       -0.39067
C         -2.92212       -5.08285       -0.83066
C         -1.73209       -4.35491       -0.67425
H         -1.74605       -3.33331       -1.04122
H          0.13578       -6.72187        0.88839
H         -1.92634       -8.00915        0.53535
H         -3.91690       -6.96077       -0.49975
H         -3.79588       -4.61363       -1.27928
C          2.09179       -4.75626       -0.02958
H          0.68139       -4.04729        1.44517
O          1.99553       -5.41317       -1.30200
C          3.45402       -3.95371        0.03461
H          2.19807       -5.55123        0.72107
O          3.53367       -2.80843       -0.39083
O          4.53999       -4.72078        0.48075
H          2.63008       -6.15105       -1.28564
C          5.85664       -4.27150        1.15680
C          6.34042       -2.80842        0.90003
C          5.38263       -1.68597        1.12228
H          5.11133       -1.19148        0.18618
H          5.82815       -0.94698        1.79278
H          4.49359       -2.03265        1.65382
C          7.64895       -2.51215        0.69678
C          8.44947       -1.26425        0.13099
O          7.76126       -0.13069        0.64532
C          7.69825        0.94346       -0.17350
O          8.42440        1.15071       -1.13304
C          6.46362        1.72573        0.16414
H          5.62126        1.29257       -0.38414
H          6.58938        2.77371       -0.10918
H          6.25812        1.67017        1.23768
C          7.08045       -5.41594        0.95806
H          5.57674       -4.32003        2.21686
C          8.48509       -4.91699        1.54730
H          7.13929       -5.65744       -0.09819
H          6.75106       -6.35426        1.43138
C          8.63290       -3.55864        0.95288
C          8.77605       -3.89274       -0.63890
H          8.02771       -3.40616       -1.28660
H          8.67104       -4.94662       -0.92202
H          9.67562       -3.61832       -1.12137
C          9.47288       -2.89785        2.17512
H          9.48915       -3.41964        3.13878
H          9.01597       -1.96392        2.53032
H         10.54439       -2.82455        2.02615
C         10.05585       -1.20525        0.48138
H          8.38063       -1.27391       -0.96362
O         10.40909       -0.46396        1.42019
C         11.20086       -2.16901       -0.21306
C         12.61143       -1.32240       -0.03682
C         11.02590       -1.91722       -1.77583
H         11.74195       -2.50326       -2.36473
H         11.21669       -0.85749       -2.00876
H         10.02705       -2.07965       -2.18193
O         12.55545        0.10719        0.16672
C         13.55768       -1.93191        0.95286
H         13.13796       -1.39382       -1.00552
C         11.38315       -4.00841        0.18980
C         14.00310       -3.23455        0.34516
H         13.08351       -2.05435        1.93002
H         14.43513       -1.28824        1.09336
C         12.96303       -4.41127        0.32103
O         13.43542       -4.73737        1.68002
C         14.72506       -4.10291        1.36204
H         14.56742       -3.11119       -0.59177
H         15.46461       -4.79566        0.93863
H         15.19147       -3.56721        2.19410
C         10.25789       -5.21041        1.13051
H         11.23379       -4.41516       -0.81420
C         10.55440       -7.15671       -0.49785
O         10.91025       -6.59423       -1.54041
C         10.09724       -8.55939       -0.42471
C          8.71559       -8.73556       -0.28173
C         10.94754       -9.67167       -0.40593
C         10.40411      -10.94334       -0.16125
C          9.03004      -11.09765        0.05272
C          8.18464       -9.99421       -0.02244
H          8.05950       -7.87492       -0.34509
H          7.11652      -10.10353        0.14093
H         11.04883      -11.81956       -0.10798
H          8.61515      -12.07701        0.28193
H         12.02125       -9.56650       -0.54210
O         10.31463       -6.62325        0.71125
H         10.75628       -5.24801        2.11475
O         13.36901       -5.33750       -0.74043
C         13.92815       -6.52859       -0.38397
O         13.51784       -7.27425        0.49323
C         15.15203       -6.83060       -1.21722
H         15.63355       -5.91001       -1.56337
H         14.89674       -7.45925       -2.07195
H         15.88922       -7.34882       -0.59182
O          8.13889       -4.83403        2.97545
H          8.36714       -5.57842        3.55699
H         12.11409        0.33610        1.01604
