25
	Energy:      61.5308637
C         -3.60105        1.18416        0.42167
C         -3.66914       -0.16364        0.37591
C         -2.39889        1.94445        0.11477
O         -2.37789        3.17547        0.16711
C         -1.22698        1.17651       -0.27622
C         -1.19819       -0.17122       -0.35895
C         -2.44181       -1.09959       -0.00769
C          0.22290       -0.69001       -0.51681
H          0.92436        0.11456       -0.78962
H          0.31450       -1.45981       -1.28134
H          0.61144       -1.05078        0.44345
H         -0.34395        1.79579       -0.40636
H         -4.46964        1.81615        0.58131
C         -5.10450       -0.66378        0.40008
H         -5.80523        0.12319        0.71943
H         -5.24836       -1.51027        1.06905
H         -5.43502       -0.92386       -0.61362
C         -1.88855       -2.12414        1.04573
H         -0.84178       -2.38715        0.83895
H         -2.35724       -3.11604        0.97860
H         -1.94585       -1.78215        2.07700
C         -3.05762       -2.07158       -1.06636
H         -3.65580       -1.58195       -1.84004
H         -3.77341       -2.74031       -0.54295
H         -2.33624       -2.74522       -1.53310
