19
	Energy:       1.1320279
C         -3.94358        3.22842        0.00893
C         -2.62056        4.01600       -0.01682
H         -3.97126        2.56012       -0.83294
H         -4.76865        3.97966       -0.11319
H         -4.06800        2.74598        0.96039
C         -1.24017        3.24318        0.00801
H         -2.72726        4.67220        0.84007
H         -2.71909        4.53523       -0.96644
C         -0.01365        4.24611       -0.00987
H         -1.13601        2.58685       -0.86182
H         -1.14133        2.61534        0.89651
C          1.38583        3.53837       -0.00211
H         -0.09360        4.85956        0.88936
H         -0.09497        4.85519       -0.90235
N          2.63317        4.36085       -0.00205
H          1.37517        2.85637       -0.85740
H          1.36971        2.95408        0.92273
H          2.81007        4.90846       -0.84600
H          3.49657        3.79921        0.09425
