59
	Energy:     250.6637864
C         -4.53575        0.39333       -0.06444
C         -4.42931       -1.11406        0.11403
C         -3.29161        1.25873        0.34439
H         -5.41355        0.71554        0.51820
H         -4.80474        0.58515       -1.11095
C         -1.93948        0.85263       -0.32297
H         -3.20311        1.19491        1.43454
H         -3.53512        2.29179        0.08743
C         -1.78755       -0.70318       -0.00239
C         -3.02468       -1.67273       -0.04394
H         -1.36658       -0.80758        1.00384
H         -1.05040       -1.13761       -0.68762
H         -2.90214       -2.43745        0.74330
H         -3.00528       -2.27038       -0.96789
H         -5.10482       -1.61847       -0.60267
H         -4.84901       -1.41654        1.08693
N         -0.52580        1.74490        0.02076
H         -2.05740        0.95213       -1.40923
C         -0.15188        3.20519       -0.15203
O         -0.98316        4.04517       -0.40088
N          1.33991        3.48725        0.01911
C          2.27019        4.82573       -0.01035
C          3.71579        4.79235        0.05466
C          4.75244        6.01454        0.05768
C          4.41039        7.37865        0.00308
C          2.96208        7.40135       -0.06549
C          1.92997        6.18826       -0.07270
H          5.80232        5.72403        0.09222
H          4.19055        3.80765        0.09781
H          0.87287        6.46074       -0.11762
H          2.48496        8.38420       -0.11479
O          5.17777        8.63051       -0.03445
C          6.77627        9.07314        0.17534
C          7.40235       10.82463        0.05600
H          7.32225        8.49652       -0.57659
H          6.99577        8.75007        1.19543
O          6.60715       11.63237        0.93676
C          9.12225       11.44828        0.30897
H          7.17758       11.13701       -0.97331
N          9.62822       12.96642        0.55691
H          9.72432       11.02473       -0.49729
H          9.41555       10.98014        1.25463
C         10.88435       13.74580        0.04104
C         10.35075       14.97694       -0.77617
H          9.60773       14.71372       -1.52543
H         11.16054       15.53046       -1.28264
H          9.89397       15.71461       -0.09401
C         11.87112       14.59256        1.01477
H         11.40449       15.43126        1.54642
H         12.64357       15.09608        0.38301
H         12.45920       13.99597        1.71780
C         11.92129       12.90961       -0.74531
H         11.57710       11.90964       -0.98558
H         12.84530       12.76391       -0.15953
H         12.23672       13.40610       -1.67174
H          8.84789       13.59208        0.75041
H          1.90435        2.65617        0.11524
H          0.25972        1.11804        0.06376
H          5.79990       11.86606        0.44627
