62
	Energy:     407.7906596
C         -4.48263        2.08070       -0.00163
C         -4.26016        0.59092        0.03113
C         -2.74468        0.41184        0.10317
H         -4.68277        0.11198       -0.86468
H         -4.77335        0.13126        0.88702
N         -2.04548        1.70759        0.33484
H         -2.42932       -0.04293       -0.84131
H         -2.50921       -0.26789        0.92444
C         -3.05141        2.72997       -0.05912
H         -2.93352        3.15463       -1.06057
H         -3.08882        3.55488        0.66542
H         -5.06242        2.37527        0.88751
H         -5.11862        2.34911       -0.86084
C         -0.52141        1.53910       -0.05087
C          0.87624        2.47953        0.05249
H         -0.52102        1.15493       -1.07483
H         -0.24910        0.72437        0.62326
O          2.39695        2.09860       -0.05498
H          0.80072        3.07550        0.97277
H          0.76345        3.21831       -0.75999
C          3.48561        1.24231       -0.00481
C          4.83004        1.73284       -0.01321
C          6.15736        0.89798       -0.00647
C          6.30232       -0.53072        0.00006
C          4.92723       -0.97701        0.00663
C          3.58323       -0.13944        0.00859
H          4.97559        2.81973       -0.02183
H          4.65258       -2.02369        0.00593
H          2.65740       -0.71321        0.00268
H          7.07156        1.50274       -0.00894
C          7.98613       -1.20736       -0.00241
O          8.82824       -0.30861       -0.00243
C          8.79282       -2.83068       -0.00550
C          7.86306       -4.10516       -0.00587
C         10.21890       -3.18070       -0.00634
C         10.61091       -4.70678       -0.00930
C          9.67704       -5.87297       -0.02431
H         11.21897       -4.89481        0.89074
H         11.23216       -4.88928       -0.90124
C          8.26671       -5.45771       -0.01097
H          9.88101       -6.52525        0.83896
H          9.87070       -6.49652       -0.91066
C          6.48410       -3.99295       -0.00055
C          5.56037       -5.06387       -0.00063
C          6.00311       -6.36747       -0.00443
C          7.36377       -6.56418       -0.00942
H          6.09321       -3.01616        0.00439
H          4.49227       -4.86542        0.00266
H          5.31641       -7.20893       -0.00410
H          7.74584       -7.58676       -0.01341
C         11.82782       -2.56167       -0.00421
C         12.23991       -1.22189       -0.00368
C         13.64798       -0.81061       -0.00268
C         14.70657       -1.71874       -0.00260
C         14.39001       -3.04912       -0.00291
C         13.01617       -3.43997       -0.00302
H         11.50140       -0.42970       -0.00378
H         13.89098        0.25006       -0.00192
H         15.19399       -3.79035       -0.00279
H         12.96404       -4.52850       -0.00194
O         16.03219       -1.39060       -0.00193
H         16.16001       -0.42831       -0.00119
